LAMMPS (29 Aug 2024 - Update 2)
OMP_NUM_THREADS environment is not set. Defaulting to 1 thread. (src/comm.cpp:98)
  using 1 OpenMP thread(s) per MPI task
#3d Lennard-jones melt

units lj
atom_style atomic
lattice fcc 0.2
Lattice spacing in x,y,z = 2.7144176 2.7144176 2.7144176
region box block 0 10 0 10 0 10
create_box 1 box
Created orthogonal box = (0 0 0) to (27.144176 27.144176 27.144176)
  1 by 1 by 1 MPI processor grid
create_atoms 1 box
Created 4000 atoms
  using lattice units in orthogonal box = (0 0 0) to (27.144176 27.144176 27.144176)
  create_atoms CPU = 0.001 seconds

mass 1 1.0
velocity all create 0.1 87287
pair_style lj/cut 2.5
pair_coeff 1 1 1.0 1.0 2.5
neighbor 0.3 bin
neigh_modify every 20 delay 0 check no

fix 1 all nvt temp 0.05 0.05 1.0
dump id all atom 50 dump.lammpstrj
thermo 100
run 10000
Generated 0 of 0 mixed pair_coeff terms from geometric mixing rule
Neighbor list info ...
  update: every = 20 steps, delay = 0 steps, check = no
  max neighbors/atom: 2000, page size: 100000
  master list distance cutoff = 2.8
  ghost atom cutoff = 2.8
  binsize = 1.4, bins = 20 20 20
  1 neighbor lists, perpetual/occasional/extra = 1 0 0
  (1) pair lj/cut, perpetual
      attributes: half, newton on
      pair build: half/bin/atomonly/newton
      stencil: half/bin/3d
      bin: standard
Per MPI rank memory allocation (min/avg/max) = 2.789 | 2.789 | 2.789 Mbytes
   Step          Temp          E_pair         E_mol          TotEng         Press     
         0   0.1           -0.4704         0             -0.3204375     -0.164325     
       100   0.18569509    -0.62919145     0             -0.35071845    -0.19710296   
       200   0.40002204    -1.102459       0             -0.502576      -0.025386787  
       300   0.36699942    -1.3344969      0             -0.78413536    -0.078006337  
       400   0.33863648    -1.5681811      0             -1.0603533     -0.095619049  
       500   0.32548248    -1.8214709      0             -1.3333692     -0.098294556  
       600   0.31895213    -2.0870254      0             -1.6087169     -0.099889123  
       700   0.30877828    -2.3501244      0             -1.8870728     -0.098358381  
       800   0.29129911    -2.5929196      0             -2.1560802     -0.086457967  
       900   0.27815961    -2.8297794      0             -2.4126443     -0.099702441  
      1000   0.26260771    -3.0528161      0             -2.659003      -0.080471445  
      1100   0.24815483    -3.2621284      0             -2.8899892     -0.084628018  
      1200   0.22866905    -3.4447537      0             -3.1018359     -0.074517204  
      1300   0.21221402    -3.6139213      0             -3.2956799     -0.078942314  
      1400   0.19440855    -3.7624919      0             -3.470952      -0.067419686  
      1500   0.18197214    -3.9005671      0             -3.6276771     -0.065703328  
      1600   0.16056168    -4.0077882      0             -3.7670059     -0.060437274  
      1700   0.15162448    -4.1169345      0             -3.8895547     -0.073341963  
      1800   0.13880505    -4.2077591      0             -3.9996036     -0.055618497  
      1900   0.13033898    -4.2942948      0             -4.0988353     -0.059327025  
      2000   0.11895157    -4.366225       0             -4.1878422     -0.0565042    
      2100   0.11355431    -4.4377048      0             -4.267416      -0.061194204  
      2200   0.10942202    -4.5061312      0             -4.3420392     -0.046576714  
      2300   0.1009551     -4.5612675      0             -4.4098727     -0.04338277   
      2400   0.097396381   -4.6171154      0             -4.4710574     -0.049924087  
      2500   0.088225141   -4.6587721      0             -4.5264675     -0.046090632  
      2600   0.082999087   -4.6994004      0             -4.5749329     -0.041005783  
      2700   0.080339069   -4.7408168      0             -4.6203384     -0.044629162  
      2800   0.078072258   -4.7793086      0             -4.6622295     -0.038074931  
      2900   0.075659541   -4.8156996      0             -4.7022387     -0.040680987  
      3000   0.072039778   -4.8471673      0             -4.7391347     -0.039790867  
      3100   0.071421112   -4.8808875      0             -4.7737827     -0.040605945  
      3200   0.067541693   -4.9081083      0             -4.8068211     -0.033113675  
      3300   0.065816177   -4.9364992      0             -4.8377996     -0.035352427  
      3400   0.065295279   -4.96489        0             -4.8669716     -0.037902344  
      3500   0.065974295   -4.9949586      0             -4.8960219     -0.033592528  
      3600   0.063977971   -5.0195023      0             -4.9235593     -0.033735281  
      3700   0.063476074   -5.0463433      0             -4.9511529     -0.027412862  
      3800   0.06227333    -5.0713976      0             -4.978011      -0.031485655  
      3900   0.061637794   -5.09587        0             -5.0034364     -0.025592757  
      4000   0.061291532   -5.1200253      0             -5.028111      -0.031852491  
      4100   0.058513438   -5.1389399      0             -5.0511916     -0.03015853   
      4200   0.057910974   -5.159184       0             -5.0723393     -0.03962497   
      4300   0.05874723    -5.1820313      0             -5.0939325     -0.026018834  
      4400   0.05696484    -5.2001278      0             -5.1147019     -0.027887625  
      4500   0.056986817   -5.2188972      0             -5.1334384     -0.028371243  
      4600   0.055394433   -5.2347566      0             -5.1516858     -0.033359047  
      4700   0.054825674   -5.2517285      0             -5.1695106     -0.026409195  
      4800   0.054827826   -5.2679735      0             -5.1857524     -0.032950023  
      4900   0.055163442   -5.2849883      0             -5.2022638     -0.03088169   
      5000   0.055273436   -5.3021282      0             -5.2192388     -0.036555405  
      5100   0.055159908   -5.3184937      0             -5.2357745     -0.033633278  
      5200   0.053427966   -5.3312223      0             -5.2511004     -0.03595111   
      5300   0.052884678   -5.3446368      0             -5.2653296     -0.034345907  
      5400   0.05276224    -5.358584       0             -5.2794604     -0.032809544  
      5500   0.052627236   -5.3719491      0             -5.2930279     -0.034062093  
      5600   0.052978415   -5.3852678      0             -5.3058201     -0.035787563  
      5700   0.052977665   -5.3981419      0             -5.3186953     -0.034501479  
      5800   0.052795442   -5.4114698      0             -5.3322964     -0.04109511   
      5900   0.051646632   -5.4229293      0             -5.3454788     -0.033599363  
      6000   0.051089805   -5.4349278      0             -5.3583123     -0.041184144  
      6100   0.051426566   -5.446966       0             -5.3698455     -0.03662189   
      6200   0.051300053   -5.4580118      0             -5.381081      -0.038173513  
      6300   0.050489287   -5.4675069      0             -5.3917919     -0.036818275  
      6400   0.051611418   -5.4793375      0             -5.4019398     -0.035357518  
      6500   0.051822423   -5.4897607      0             -5.4120465     -0.037726985  
      6600   0.052961686   -5.5022877      0             -5.422865      -0.031083322  
      6700   0.051023364   -5.5099226      0             -5.4334067     -0.035805819  
      6800   0.050930012   -5.5201823      0             -5.4438064     -0.048131346  
      6900   0.051042783   -5.5307915      0             -5.4542465     -0.037796899  
      7000   0.053047532   -5.5445639      0             -5.4650125     -0.035489552  
      7100   0.053406428   -5.5574719      0             -5.4773823     -0.039940617  
      7200   0.054207634   -5.5719645      0             -5.4906734     -0.044018976  
      7300   0.054453744   -5.5870537      0             -5.5053935     -0.045797077  
      7400   0.053470026   -5.6007783      0             -5.5205933     -0.036934266  
      7500   0.054888512   -5.6180617      0             -5.5357495     -0.035745583  
      7600   0.055135235   -5.6346974      0             -5.5520152     -0.046124759  
      7700   0.054502464   -5.6501286      0             -5.5683953     -0.046639581  
      7800   0.053487895   -5.6636889      0             -5.5834771     -0.044387293  
      7900   0.052326091   -5.6767383      0             -5.5982688     -0.038169078  
      8000   0.053033217   -5.6922402      0             -5.6127103     -0.047487819  
      8100   0.052482458   -5.7058195      0             -5.6271155     -0.032875367  
      8200   0.051666376   -5.7172101      0             -5.6397299     -0.044931306  
      8300   0.051161856   -5.7283573      0             -5.6516337     -0.03212274   
      8400   0.050651748   -5.7378728      0             -5.6619142     -0.038880206  
      8500   0.050142291   -5.7464715      0             -5.6712769     -0.036648245  
      8600   0.050110436   -5.7553181      0             -5.6801713     -0.031362521  
      8700   0.04972734    -5.7627486      0             -5.6881763     -0.032298118  
      8800   0.050646605   -5.7714918      0             -5.6955409     -0.038530365  
      8900   0.049597271   -5.7779521      0             -5.7035748     -0.036641741  
      9000   0.049713148   -5.7850699      0             -5.7105188     -0.033582031  
      9100   0.049376582   -5.7908175      0             -5.7167711     -0.038031993  
      9200   0.0502661     -5.7978438      0             -5.7224635     -0.039216754  
      9300   0.05055145    -5.8042774      0             -5.7284692     -0.030430059  
      9400   0.051107222   -5.8106485      0             -5.7340068     -0.038328175  
      9500   0.050705884   -5.8163508      0             -5.740311      -0.028938805  
      9600   0.050199526   -5.8221531      0             -5.7468726     -0.034773835  
      9700   0.051741478   -5.831393       0             -5.7538002     -0.040967817  
      9800   0.051937892   -5.8398699      0             -5.7619826     -0.033395225  
      9900   0.050472603   -5.8461745      0             -5.7704845     -0.037837379  
     10000   0.050138303   -5.8542068      0             -5.7790181     -0.040554492  
Loop time of 15.7877 on 1 procs for 10000 steps with 4000 atoms

Performance: 273631.295 tau/day, 633.406 timesteps/s, 2.534 Matom-step/s
99.8% CPU use with 1 MPI tasks x 1 OpenMP threads

MPI task timing breakdown:
Section |  min time  |  avg time  |  max time  |%varavg| %total
---------------------------------------------------------------
Pair    | 11.876     | 11.876     | 11.876     |   0.0 | 75.22
Neigh   | 1.8448     | 1.8448     | 1.8448     |   0.0 | 11.68
Comm    | 0.19394    | 0.19394    | 0.19394    |   0.0 |  1.23
Output  | 1.2233     | 1.2233     | 1.2233     |   0.0 |  7.75
Modify  | 0.58337    | 0.58337    | 0.58337    |   0.0 |  3.70
Other   |            | 0.06622    |            |       |  0.42

Nlocal:           4000 ave        4000 max        4000 min
Histogram: 1 0 0 0 0 0 0 0 0 0
Nghost:           3089 ave        3089 max        3089 min
Histogram: 1 0 0 0 0 0 0 0 0 0
Neighs:         117874 ave      117874 max      117874 min
Histogram: 1 0 0 0 0 0 0 0 0 0

Total # of neighbors = 117874
Ave neighs/atom = 29.4685
Neighbor list builds = 500
Dangerous builds not checked
Total wall time: 0:00:15
